 Gaussian 16, Revision A.03,
 Gaussian 16:  ES64L-G16RevA.03 25-Dec-2016

 ----------------------------------------------------------------------
 #wb97xd def2tzvp opt=(calcfc,ts,noeigen,maxcycles=60,maxstep=3) freq=n
 oraman
 ----------------------------------------------------------------------

 -------------------------
 1e_2b_endo_ts_6_reopt.out
 -------------------------
 Symbolic Z-matrix:
 Charge =  0 Multiplicity = 1

 SCF Done:  E(RwB97XD) =  -1231.13064437     A.U. after   16 cycles
 SCF Done:  E(RwB97XD) =  -1231.13094336     A.U. after   10 cycles
 SCF Done:  E(RwB97XD) =  -1231.13121904     A.U. after   10 cycles
 SCF Done:  E(RwB97XD) =  -1231.13147415     A.U. after   11 cycles
 SCF Done:  E(RwB97XD) =  -1231.13171107     A.U. after   11 cycles
 SCF Done:  E(RwB97XD) =  -1231.13193222     A.U. after   11 cycles
 SCF Done:  E(RwB97XD) =  -1231.13213969     A.U. after   11 cycles
 SCF Done:  E(RwB97XD) =  -1231.13233434     A.U. after   11 cycles
 SCF Done:  E(RwB97XD) =  -1231.13251556     A.U. after   11 cycles
 SCF Done:  E(RwB97XD) =  -1231.13268207     A.U. after   11 cycles
 SCF Done:  E(RwB97XD) =  -1231.13283240     A.U. after   11 cycles
 SCF Done:  E(RwB97XD) =  -1231.13296379     A.U. after   11 cycles
 SCF Done:  E(RwB97XD) =  -1231.13307206     A.U. after   11 cycles
 SCF Done:  E(RwB97XD) =  -1231.13315474     A.U. after   11 cycles
 SCF Done:  E(RwB97XD) =  -1231.13320786     A.U. after   11 cycles
 SCF Done:  E(RwB97XD) =  -1231.13322916     A.U. after   11 cycles
 SCF Done:  E(RwB97XD) =  -1231.13322975     A.U. after    8 cycles
 Optimization completed.
    -- Stationary point found.
 Normal termination of Gaussian 16 at Fri Feb 18 18:59:41 2022.

 ---------------------------------------------------------------------
 #N Geom=AllCheck Guess=TCheck SCRF=Check GenChk RwB97XD/def2TZVP Freq
 ---------------------------------------------------------------------

 Structure from the checkpoint file:  "/local/Gau-45150.chk"
 -------------------------
 1e_2b_endo_ts_6_reopt.out
 -------------------------
 Charge =  0 Multiplicity = 1

                         Standard orientation:
 ---------------------------------------------------------------------
 Center     Atomic      Atomic             Coordinates (Angstroms)
 Number     Number       Type             X           Y           Z
 ---------------------------------------------------------------------
      1          6           0        1.296071   -1.876975   -1.084460
      2          6           0       -0.444665   -0.519966   -1.287621
      3          6           0        2.108222    0.795914   -0.253703
      4          6           0       -0.111425    0.736007   -0.908823
      5          6           0        1.766023   -1.587424    0.165333
      6          6           0        2.153245   -0.296264    0.565205
      7          1           0        1.640910   -2.328262    0.945616
      8          1           0        0.902155   -2.863022   -1.295284
      9          1           0        2.184137    0.646662   -1.324270
     10          1           0        1.626271   -1.316133   -1.948504
     11          1           0       -0.005866    1.723355   -1.323639
     12          1           0        2.308360   -0.131586    1.626016
     13          6           0       -1.124091    0.048096   -0.133216
     14          1           0       -0.779077   -1.046350   -2.164885
     15          6           0        2.403112    2.181286    0.229154
     16          1           0        1.797338    2.924956   -0.291246
     17          1           0        2.214760    2.276952    1.298425
     18          1           0        3.450253    2.434681    0.040864
     19         17           0       -2.832932    0.556341   -0.333002
     20         17           0       -0.909314   -0.509593    1.549807
 ---------------------------------------------------------------------

 SCF Done:  E(RwB97XD) =  -1231.13322975     A.U. after    1 cycles

 The electronic state is 1-A.
 Alpha  occ. eigenvalues -- -101.68067-101.68046 -10.40806 -10.32391 -10.31870
 Alpha  occ. eigenvalues --  -10.31616 -10.30452 -10.29659 -10.29256 -10.29098
 Alpha  occ. eigenvalues --   -9.56641  -9.56622  -7.31292  -7.31264  -7.30406
 Alpha  occ. eigenvalues --   -7.30398  -7.30393  -7.30383  -1.03856  -0.93685
 Alpha  occ. eigenvalues --   -0.92274  -0.90069  -0.87268  -0.79320  -0.71963
 Alpha  occ. eigenvalues --   -0.68865  -0.66301  -0.63013  -0.59890  -0.58848
 Alpha  occ. eigenvalues --   -0.55185  -0.54471  -0.51114  -0.50142  -0.48768
 Alpha  occ. eigenvalues --   -0.48155  -0.46925  -0.44844  -0.44518  -0.44027
 Alpha  occ. eigenvalues --   -0.39577  -0.39226  -0.36404  -0.35321  -0.33013
 Alpha  occ. eigenvalues --   -0.31904
 Alpha virt. eigenvalues --    0.02046   0.04112   0.07989   0.10990   0.12110
 Alpha virt. eigenvalues --    0.12745   0.13874   0.14986   0.16203   0.16628
 Alpha virt. eigenvalues --    0.17678   0.18821   0.19832   0.20376   0.21020

 Mulliken charges:
               1
     1  C   -0.243553
     2  C   -0.162924
     3  C   -0.071222
     4  C   -0.159391
     5  C   -0.127717
     6  C   -0.146960
     7  H    0.134154
     8  H    0.144655
     9  H    0.128472
    10  H    0.137167
    11  H    0.162501
    12  H    0.125724
    13  C    0.110092
    14  H    0.168466
    15  C   -0.325551
    16  H    0.115517
    17  H    0.129649
    18  H    0.134036
    19  Cl  -0.138028
    20  Cl  -0.115088
 Sum of Mulliken charges =  -0.00000

 Dipole moment (field-independent basis, Debye):
    X=              3.0517    Y=              0.2819    Z=             -1.9475  Tot=              3.6311
 Quadrupole moment (field-independent basis, Debye-Ang):
   XX=            -79.8033   YY=            -69.5042   ZZ=            -70.4271
   XY=              3.2496   XZ=              1.5058   YZ=              0.5461

  Exact polarizability: 141.783  -2.466 122.789   7.795   0.594 108.025
 Approx polarizability: 153.317  -4.447 149.563  13.803  -2.409 138.512

 ******    1 imaginary frequencies (negative Signs) ******

                      1                      2                      3
                      A                      A                      A
 Frequencies --   -501.2588                71.6649                77.0866
 Red. masses --      6.2155                 3.9738                 7.8739
 Frc consts  --      0.9201                 0.0120                 0.0276
 IR Inten    --      6.5735                 0.7980                 0.4195

                      4                      5                      6
                      A                      A                      A
 Frequencies --    138.6587               155.8496               208.4373
 Red. masses --      1.1918                 4.9082                 3.7942
 Frc consts  --      0.0135                 0.0702                 0.0971
 IR Inten    --      0.2487                 0.6352                 0.1001

                      7                      8                      9
                      A                      A                      A
 Frequencies --    223.5443               265.5143               285.0332
 Red. masses --      3.6814                 4.7874                12.6637
 Frc consts  --      0.1084                 0.1988                 0.6062
 IR Inten    --      1.7888                 2.3127                 1.4490

                     10                     11                     12
                      A                      A                      A
 Frequencies --    289.1692               397.0800               412.0235
 Red. masses --      2.9002                 4.1905                 3.2752
 Frc consts  --      0.1429                 0.3893                 0.3276
 IR Inten    --      0.5806                 7.6239                 2.5582

                     13                     14                     15
                      A                      A                      A
 Frequencies --    416.3307               482.4012               504.0859
 Red. masses --      3.2974                 2.3309                 8.4672
 Frc consts  --      0.3367                 0.3196                 1.2676
 IR Inten    --      0.4838                 2.7846                24.4536

                     16                     17                     18
                      A                      A                      A
 Frequencies --    523.5468               619.6623               710.4277
 Red. masses --      4.3060                 2.4180                 1.3758
 Frc consts  --      0.6954                 0.5470                 0.4091
 IR Inten    --      1.0657                 0.3720                13.7872

                     19                     20                     21
                      A                      A                      A
 Frequencies --    738.7343               749.9669               875.6235
 Red. masses --      3.3534                 1.2888                 1.3833
 Frc consts  --      1.0782                 0.4271                 0.6249
 IR Inten    --    154.0222                14.4756                 5.9404

                     22                     23                     24
                      A                      A                      A
 Frequencies --    906.3856               920.8002               944.8301
 Red. masses --      1.3309                 1.5477                 1.4307
 Frc consts  --      0.6442                 0.7732                 0.7525
 IR Inten    --     28.1597                10.0391                19.8099

                     25                     26                     27
                      A                      A                      A
 Frequencies --   1004.1874              1010.4525              1017.6356
 Red. masses --      1.2610                 1.4186                 1.4249
 Frc consts  --      0.7492                 0.8534                 0.8694
 IR Inten    --     15.1880                 2.5736                 4.8410

                     28                     29                     30
                      A                      A                      A
 Frequencies --   1032.7679              1048.1032              1066.2804
 Red. masses --      1.3363                 1.3189                 1.4716
 Frc consts  --      0.8398                 0.8536                 0.9858
 IR Inten    --     11.6266                 3.2127                11.7362

                     31                     32                     33
                      A                      A                      A
 Frequencies --   1116.2556              1123.3918              1170.9923
 Red. masses --      1.7655                 2.4290                 2.0245
 Frc consts  --      1.2961                 1.8061                 1.6356
 IR Inten    --      3.7472                 6.2727                 0.6363

                     34                     35                     36
                      A                      A                      A
 Frequencies --   1178.1745              1296.1644              1312.4007
 Red. masses --      4.0926                 1.4070                 1.3817
 Frc consts  --      3.3471                 1.3927                 1.4022
 IR Inten    --    139.9765                 0.2178                 1.2507

                     37                     38                     39
                      A                      A                      A
 Frequencies --   1360.3453              1423.0362              1462.9956
 Red. masses --      1.4384                 1.2670                 2.1751
 Frc consts  --      1.5683                 1.5117                 2.7429
 IR Inten    --      0.4119                 2.1886                 6.3413

                     40                     41                     42
                      A                      A                      A
 Frequencies --   1485.5037              1489.6608              1500.8381
 Red. masses --      1.3281                 1.0823                 1.2812
 Frc consts  --      1.7268                 1.4151                 1.7003
 IR Inten    --      8.4165                 7.3333                34.6612

                     43                     44                     45
                      A                      A                      A
 Frequencies --   1628.4455              1648.4218              3047.5147
 Red. masses --      3.2939                 3.9268                 1.0389
 Frc consts  --      5.1464                 6.2868                 5.6846
 IR Inten    --      3.4723                20.8758                25.2621

                     46                     47                     48
                      A                      A                      A
 Frequencies --   3109.9227              3140.0025              3165.9430
 Red. masses --      1.0975                 1.1019                 1.0575
 Frc consts  --      6.2537                 6.4008                 6.2450
 IR Inten    --     12.4707                 9.6724                 5.1313

                     49                     50                     51
                      A                      A                      A
 Frequencies --   3178.2615              3187.1625              3201.6892
 Red. masses --      1.0896                 1.0870                 1.0933
 Frc consts  --      6.4845                 6.5056                 6.6029
 IR Inten    --      1.9415                11.9226                 5.4438

                     52                     53                     54
                      A                      A                      A
 Frequencies --   3251.1232              3258.5492              3280.8831
 Red. masses --      1.1151                 1.0892                 1.1154
 Frc consts  --      6.9444                 6.8143                 7.0740
 IR Inten    --      5.0402                 0.7376                 2.3238

 - Thermochemistry -
 -------------------
 Temperature   298.150 Kelvin.  Pressure   1.00000 Atm.
 Atom     1 has atomic number  6 and mass  12.00000

 Molecular mass:   176.01596 amu.
 Principal axes and moments of inertia in atomic units:
                           1         2         3
     Eigenvalues --  1299.140342694.414172880.90306
           X            0.99942   0.03318   0.00823
           Y           -0.03392   0.99253   0.11721
           Z           -0.00428  -0.11742   0.99307
 This molecule is an asymmetric top.
 Rotational symmetry number  1.
 Warning -- assumption of classical behavior for rotation
           may cause significant error
 Rotational temperatures (Kelvin)      0.06667     0.03215     0.03006
 Rotational constants (GHZ):           1.38918     0.66981     0.62645
    1 imaginary frequencies ignored.
 Zero-point vibrational energy     407412.0 (Joules/Mol)
                                   97.37380 (Kcal/Mol)
 Warning -- explicit consideration of  16 degrees of freedom as
           vibrations may cause significant error
 Vibrational temperatures:    103.11   110.91   199.50   224.23   299.89
          (Kelvin)            321.63   382.02   410.10   416.05   571.31
                              592.81   599.01   694.07   725.27   753.27
                              891.56  1022.15  1062.87  1079.04  1259.83
                             1304.09  1324.83  1359.40  1444.80  1453.82
                             1464.15  1485.92  1507.99  1534.14  1606.04
                             1616.31  1684.80  1695.13  1864.89  1888.25
                             1957.23  2047.43  2104.92  2137.31  2143.29
                             2159.37  2342.97  2371.71  4384.69  4474.49
                             4517.76  4555.09  4572.81  4585.62  4606.52
                             4677.64  4688.33  4720.46

 Zero-point correction=                           0.155175 (Hartree/Particle)
 Thermal correction to Energy=                    0.165856
 Thermal correction to Enthalpy=                  0.166800
 Thermal correction to Gibbs Free Energy=         0.118549
 Sum of electronic and zero-point Energies=          -1230.978055
 Sum of electronic and thermal Energies=             -1230.967374
 Sum of electronic and thermal Enthalpies=           -1230.966429
 Sum of electronic and thermal Free Energies=        -1231.014681

                     E (Thermal)             CV                S
                      KCal/Mol        Cal/Mol-Kelvin    Cal/Mol-Kelvin
 Total                  104.076             39.753            101.554
 Electronic               0.000              0.000              0.000
 Translational            0.889              2.981             41.403
 Rotational               0.889              2.981             30.690
 Vibrational            102.299             33.791             29.461
 Vibration     1          0.598              1.968              4.107
 Vibration     2          0.599              1.964              3.964
 Vibration     3          0.614              1.915              2.822
 Vibration     4          0.620              1.896              2.600
 Vibration     5          0.642              1.828              2.057
 Vibration     6          0.649              1.805              1.930
 Vibration     7          0.671              1.736              1.625
 Vibration     8          0.683              1.701              1.503
 Vibration     9          0.686              1.694              1.479
 Vibration    10          0.764              1.476              0.973
 Vibration    11          0.776              1.444              0.919
 Vibration    12          0.780              1.435              0.905
 Vibration    13          0.839              1.289              0.704
 Vibration    14          0.859              1.241              0.648
 Vibration    15          0.879              1.198              0.602
 Vibration    16          0.980              0.990              0.417

 Optimization completed.
    -- Stationary point found.
 Normal termination of Gaussian 16 at Fri Feb 18 19:13:12 2022.
