 Gaussian 16, Revision A.03,
 Gaussian 16:  ES64L-G16RevA.03 25-Dec-2016

 ----------------------------------------------------------------------
 # wB97XD def2tzvp, opt=(ts, noeigen, calcfc, maxcycles=70, maxstep=8),
  freq=noraman
 ----------------------------------------------------------------------

 ----------------------
 1_iteration/ts-1-1.out
 ----------------------
 Symbolic Z-matrix:
 Charge = -1 Multiplicity = 1

 SCF Done:  E(RwB97XD) =  -593.658831752     A.U. after   17 cycles
 SCF Done:  E(RwB97XD) =  -593.658831770     A.U. after    7 cycles
 Optimization completed.
    -- Stationary point found.
 Normal termination of Gaussian 16 at Sun Dec 27 07:22:47 2020.

 ---------------------------------------------------------------------
 #N Geom=AllCheck Guess=TCheck SCRF=Check GenChk RwB97XD/def2TZVP Freq
 ---------------------------------------------------------------------

 Structure from the checkpoint file:  "/beegfs/scratch/user/d/ehef20/Gau-166997.chk"
 ----------------------
 1_iteration/ts-1-1.out
 ----------------------
 Charge = -1 Multiplicity = 1

                         Standard orientation:
 ---------------------------------------------------------------------
 Center     Atomic      Atomic             Coordinates (Angstroms)
 Number     Number       Type             X           Y           Z
 ---------------------------------------------------------------------
      1          6           0        0.062674    0.057120    0.788674
      2          6           0        1.288195    0.455376    0.244895
      3          6           0        2.272919   -0.479155   -0.229849
      4          8           0        2.135008   -1.704219   -0.307264
      5          6           0       -1.211978   -0.278330   -1.053092
      6          1           0       -0.833398    0.523293   -1.666382
      7          1           0       -0.875568   -1.292110   -1.194301
      8          7           0       -2.515112   -0.133960   -0.683958
      9          8           0       -3.070339    0.981674   -0.801678
     10          8           0       -3.112698   -1.093160   -0.142530
     11          6           0       -0.825344    1.110052    1.403672
     12          6           0       -0.171101   -1.300589    1.397899
     13          6           0        1.476732    1.932314   -0.021240
     14          6           0        3.626776    0.067964   -0.700579
     15          1           0       -1.792796    0.688034    1.673619
     16          1           0       -0.350513    1.489525    2.316990
     17          1           0       -1.010649    1.952068    0.739568
     18          1           0       -1.229233   -1.560943    1.332589
     19          1           0        0.434710   -2.066567    0.928534
     20          1           0        0.095304   -1.240737    2.461196
     21          1           0        2.448424    2.160797   -0.452863
     22          1           0        0.721979    2.307480   -0.725346
     23          1           0        1.379545    2.539429    0.885144
     24          1           0        4.291642   -0.782398   -0.841696
     25          1           0        3.526526    0.593243   -1.654483
     26          1           0        4.070818    0.763744    0.014643
 ---------------------------------------------------------------------

 SCF Done:  E(RwB97XD) =  -593.658831770     A.U. after    1 cycles

 The electronic state is 1-A.
 Alpha  occ. eigenvalues --  -19.07246 -19.07164 -19.06727 -14.46999 -10.21780
 Alpha  occ. eigenvalues --  -10.19213 -10.15843 -10.15416 -10.14484 -10.13938
 Alpha  occ. eigenvalues --  -10.13011 -10.12895  -1.12013  -0.97517  -0.93726
 Alpha  occ. eigenvalues --   -0.79349  -0.73762  -0.72577  -0.68746  -0.65727
 Alpha  occ. eigenvalues --   -0.61594  -0.53551  -0.51131  -0.44908  -0.44066
 Alpha  occ. eigenvalues --   -0.43423  -0.42772  -0.42213  -0.40430  -0.40033
 Alpha  occ. eigenvalues --   -0.38130  -0.36621  -0.36603  -0.35730  -0.34693
 Alpha  occ. eigenvalues --   -0.33686  -0.32759  -0.32057  -0.30523  -0.29838
 Alpha  occ. eigenvalues --   -0.28866  -0.21293  -0.20285  -0.19857  -0.18014
 Alpha  occ. eigenvalues --   -0.17924  -0.10556
 Alpha virt. eigenvalues --    0.14976   0.21400   0.22946   0.24434   0.26297
 Alpha virt. eigenvalues --    0.27036   0.27667   0.28884   0.29211   0.30468
 Alpha virt. eigenvalues --    0.30951   0.32051   0.32486   0.32708   0.33300

 Mulliken charges:
               1
     1  C    0.171997
     2  C   -0.158954
     3  C    0.290669
     4  O   -0.477054
     5  C   -0.362431
     6  H    0.104015
     7  H    0.139672
     8  N    0.446058
     9  O   -0.494038
    10  O   -0.492100
    11  C   -0.388524
    12  C   -0.372588
    13  C   -0.413959
    14  C   -0.395231
    15  H    0.148093
    16  H    0.102812
    17  H    0.138431
    18  H    0.149869
    19  H    0.154881
    20  H    0.072750
    21  H    0.100077
    22  H    0.113692
    23  H    0.100859
    24  H    0.108738
    25  H    0.108535
    26  H    0.103730
 Sum of Mulliken charges =  -1.00000

 Dipole moment (field-independent basis, Debye):
    X=              5.6948    Y=              2.7799    Z=              1.3562  Tot=              6.4806
 Quadrupole moment (field-independent basis, Debye-Ang):
   XX=           -119.4967   YY=            -89.5606   ZZ=            -78.1352
   XY=              6.1351   XZ=             -3.6371   YZ=              0.3248

  Exact polarizability: 213.478  -0.011 123.312   2.383  -1.233 108.816
 Approx polarizability: 206.132  -2.862 148.987   3.845  -2.628 125.365

 ******    1 imaginary frequencies (negative Signs) ******

                      1                      2                      3
                      A                      A                      A
 Frequencies --   -347.7651                41.0154                51.9738
 Red. masses --      7.3846                 5.3746                 3.3611
 Frc consts  --      0.5262                 0.0053                 0.0053
 IR Inten    --   1052.2815                 5.7532                 0.3555

                      4                      5                      6
                      A                      A                      A
 Frequencies --     59.1253               116.6277               133.9726
 Red. masses --      6.0036                 3.8752                 5.6283
 Frc consts  --      0.0124                 0.0311                 0.0595
 IR Inten    --      3.5474                 2.0854                12.8614

                      7                      8                      9
                      A                      A                      A
 Frequencies --    140.6375               173.6398               203.1159
 Red. masses --      3.1740                 1.2805                 1.3883
 Frc consts  --      0.0370                 0.0227                 0.0337
 IR Inten    --      1.0391                 0.2055                 9.8076

                     10                     11                     12
                      A                      A                      A
 Frequencies --    235.7667               247.7334               263.2199
 Red. masses --      1.1863                 1.4314                 1.7034
 Frc consts  --      0.0389                 0.0518                 0.0695
 IR Inten    --      2.7601                 0.5213                 1.9591

                     13                     14                     15
                      A                      A                      A
 Frequencies --    283.1745               326.3897               380.6017
 Red. masses --      2.1439                 2.4555                 2.8424
 Frc consts  --      0.1013                 0.1541                 0.2426
 IR Inten    --      1.0751                 5.7750                 2.0978

                     16                     17                     18
                      A                      A                      A
 Frequencies --    405.7533               425.2487               449.4954
 Red. masses --      3.0139                 2.7721                 2.6405
 Frc consts  --      0.2923                 0.2954                 0.3143
 IR Inten    --      4.7178                18.7621               138.3054

                     19                     20                     21
                      A                      A                      A
 Frequencies --    494.7450               552.3045               600.0121
 Red. masses --      2.5811                 2.4681                 4.0732
 Frc consts  --      0.3722                 0.4436                 0.8640
 IR Inten    --      3.0703                 1.0106                 8.2227

                     22                     23                     24
                      A                      A                      A
 Frequencies --    630.9122               677.3787               705.0367
 Red. masses --      2.6235                 3.2827                 7.5506
 Frc consts  --      0.6153                 0.8875                 2.2113
 IR Inten    --    116.9833                31.5420                 1.1942

                     25                     26                     27
                      A                      A                      A
 Frequencies --    748.7401               787.1705               811.1623
 Red. masses --      1.1802                 1.5983                 4.1196
 Frc consts  --      0.3898                 0.5835                 1.5971
 IR Inten    --      0.9557               134.9582               192.1999

                     28                     29                     30
                      A                      A                      A
 Frequencies --    862.0502               959.6572               982.4933
 Red. masses --      2.6471                 1.3255                 1.5828
 Frc consts  --      1.1590                 0.7192                 0.9002
 IR Inten    --     11.4969                 3.4474               101.2135

                     31                     32                     33
                      A                      A                      A
 Frequencies --   1017.6488              1023.4933              1034.2968
 Red. masses --      1.4967                 1.3819                 1.6104
 Frc consts  --      0.9132                 0.8529                 1.0150
 IR Inten    --     26.0530                 5.6037                 0.3371

                     34                     35                     36
                      A                      A                      A
 Frequencies --   1055.4045              1063.5870              1099.6656
 Red. masses --      1.5161                 4.6401                 1.6101
 Frc consts  --      0.9950                 3.0926                 1.1471
 IR Inten    --      1.3649                 0.5529               157.5451

                     37                     38                     39
                      A                      A                      A
 Frequencies --   1104.0892              1119.0249              1161.8475
 Red. masses --      1.9642                 1.4867                 2.9523
 Frc consts  --      1.4107                 1.0969                 2.3481
 IR Inten    --     18.0867                40.1561                21.2943

                     40                     41                     42
                      A                      A                      A
 Frequencies --   1254.4318              1349.3559              1373.7460
 Red. masses --      3.3534                 2.5722                 1.5940
 Frc consts  --      3.1091                 2.7593                 1.7723
 IR Inten    --     93.6426               240.7989                90.2693

                     43                     44                     45
                      A                      A                      A
 Frequencies --   1383.1138              1408.6056              1413.5312
 Red. masses --      3.2500                 1.3820                 1.2736
 Frc consts  --      3.6632                 1.6156                 1.4993
 IR Inten    --   1242.5875                41.0582                 4.5925

                     46                     47                     48
                      A                      A                      A
 Frequencies --   1421.5892              1443.4624              1464.5050
 Red. masses --      1.2140                 1.4720                 2.5933
 Frc consts  --      1.4455                 1.8071                 3.2771
 IR Inten    --      4.6528               180.0048               228.7899

                     49                     50                     51
                      A                      A                      A
 Frequencies --   1475.3374              1478.4597              1484.0142
 Red. masses --      1.1100                 1.0598                 1.3491
 Frc consts  --      1.4235                 1.3649                 1.7506
 IR Inten    --     49.3244                 5.0171                63.9898

                     52                     53                     54
                      A                      A                      A
 Frequencies --   1488.2285              1497.5075              1510.1931
 Red. masses --      1.2643                 1.2081                 1.0690
 Frc consts  --      1.6498                 1.5962                 1.4364
 IR Inten    --     14.0441                74.5850                 0.5684

                     55                     56                     57
                      A                      A                      A
 Frequencies --   1516.0490              1525.4564              1542.9413
 Red. masses --      1.0543                 1.0978                 2.0634
 Frc consts  --      1.4278                 1.5051                 2.8943
 IR Inten    --      4.3304                21.0480               171.4316

                     58                     59                     60
                      A                      A                      A
 Frequencies --   1674.0856              2998.7502              3012.5789
 Red. masses --      8.7500                 1.0511                 1.0525
 Frc consts  --     14.4482                 5.5688                 5.6277
 IR Inten    --    250.1167                63.0304                42.7230

                     61                     62                     63
                      A                      A                      A
 Frequencies --   3023.4071              3040.7527              3043.5015
 Red. masses --      1.0516                 1.0383                 1.0921
 Frc consts  --      5.6638                 5.6566                 5.9602
 IR Inten    --     71.4993                23.8072                51.5712

                     64                     65                     66
                      A                      A                      A
 Frequencies --   3098.2099              3108.1768              3118.2744
 Red. masses --      1.0886                 1.0997                 1.0834
 Frc consts  --      6.1567                 6.2597                 6.2068
 IR Inten    --      3.2108                23.3968                 6.8348

                     67                     68                     69
                      A                      A                      A
 Frequencies --   3146.7990              3153.1189              3157.2761
 Red. masses --      1.0976                 1.0943                 1.1011
 Frc consts  --      6.4038                 6.4103                 6.4673
 IR Inten    --     42.5164                24.2640                 5.3401

                     70                     71                     72
                      A                      A                      A
 Frequencies --   3189.5268              3210.0717              3313.1399
 Red. masses --      1.0491                 1.0950                 1.1237
 Frc consts  --      6.2883                 6.6480                 7.2672
 IR Inten    --      6.2107                 3.5962                 4.2516

 - Thermochemistry -
 -------------------
 Temperature   298.150 Kelvin.  Pressure   1.00000 Atm.
 Atom     1 has atomic number  6 and mass  12.00000

 Molecular mass:   172.09737 amu.
 Principal axes and moments of inertia in atomic units:
                           1         2         3
     Eigenvalues --  1150.650813368.224973660.10902
           X            0.99970   0.01656  -0.01812
           Y           -0.01680   0.99977  -0.01337
           Z            0.01789   0.01367   0.99975
 This molecule is an asymmetric top.
 Rotational symmetry number  1.
 Warning -- assumption of classical behavior for rotation
           may cause significant error
 Rotational temperatures (Kelvin)      0.07527     0.02572     0.02366
 Rotational constants (GHZ):           1.56845     0.53581     0.49308
    1 imaginary frequencies ignored.
 Zero-point vibrational energy     560728.0 (Joules/Mol)
                                  134.01722 (Kcal/Mol)
 Warning -- explicit consideration of  20 degrees of freedom as
           vibrations may cause significant error
 Vibrational temperatures:     59.01    74.78    85.07   167.80   192.76
          (Kelvin)            202.35   249.83   292.24   339.22   356.43
                              378.71   407.42   469.60   547.60   583.79
                              611.84   646.72   711.83   794.64   863.28
                              907.74   974.60  1014.39  1077.27  1132.56
                             1167.08  1240.30  1380.73  1413.59  1464.17
                             1472.58  1488.12  1518.49  1530.26  1582.17
                             1588.54  1610.03  1671.64  1804.85  1941.42
                             1976.51  1989.99  2026.67  2033.76  2045.35
                             2076.82  2107.10  2122.68  2127.17  2135.17
                             2141.23  2154.58  2172.83  2181.26  2194.79
                             2219.95  2408.64  4314.53  4334.43  4350.01
                             4374.96  4378.92  4457.63  4471.97  4486.50
                             4527.54  4536.63  4542.62  4589.02  4618.58
                             4766.87

 Zero-point correction=                           0.213570 (Hartree/Particle)
 Thermal correction to Energy=                    0.227292
 Thermal correction to Enthalpy=                  0.228236
 Thermal correction to Gibbs Free Energy=         0.172904
 Sum of electronic and zero-point Energies=           -593.445262
 Sum of electronic and thermal Energies=              -593.431540
 Sum of electronic and thermal Enthalpies=            -593.430596
 Sum of electronic and thermal Free Energies=         -593.485928

                     E (Thermal)             CV                S
                      KCal/Mol        Cal/Mol-Kelvin    Cal/Mol-Kelvin
 Total                  142.628             49.697            116.457
 Electronic               0.000              0.000              0.000
 Translational            0.889              2.981             41.336
 Rotational               0.889              2.981             31.029
 Vibrational            140.850             43.735             44.092
 Vibration     1          0.594              1.981              5.209
 Vibration     2          0.596              1.977              4.741
 Vibration     3          0.596              1.974              4.486
 Vibration     4          0.608              1.936              3.156
 Vibration     5          0.613              1.919              2.888
 Vibration     6          0.615              1.913              2.795
 Vibration     7          0.627              1.875              2.396
 Vibration     8          0.639              1.835              2.105
 Vibration     9          0.655              1.786              1.835
 Vibration    10          0.661              1.767              1.747
 Vibration    11          0.670              1.740              1.640
 Vibration    12          0.682              1.705              1.514
 Vibration    13          0.710              1.623              1.278
 Vibration    14          0.750              1.512              1.037
 Vibration    15          0.771              1.458              0.942
 Vibration    16          0.787              1.415              0.874
 Vibration    17          0.808              1.362              0.797
 Vibration    18          0.850              1.262              0.671
 Vibration    19          0.908              1.135              0.539
 Vibration    20          0.958              1.032              0.450

 Optimization completed.
    -- Stationary point found.
 Normal termination of Gaussian 16 at Sun Dec 27 07:36:09 2020.
