 Gaussian 16, Revision C.01,
 Gaussian 16:  ES64L-G16RevC.01  3-Jul-2019

 ----------------------------------------------------------------------
 # am1 opt=(calcfc,ts,noeigen,maxcycles=80,maxstep=3) freq=noraman scrf
 =(smd,solvent=water)
 ----------------------------------------------------------------------

 Generated by autodE on: 2022-05-25. E = -382.310449 Ha. Imaginary freq
 uency = -384.9 cm-1
 ----------------------------------------------------------------------
 Symbolic Z-matrix:
 Charge =  0 Multiplicity = 1

 SCF Done:  E(RAM1) =  0.185465306145     A.U. after   16 cycles
 SCF Done:  E(RAM1) =  0.184809538515     A.U. after   13 cycles
 SCF Done:  E(RAM1) =  0.184268571170     A.U. after   13 cycles
 SCF Done:  E(RAM1) =  0.183789092153     A.U. after   13 cycles
 SCF Done:  E(RAM1) =  0.183308490970     A.U. after   13 cycles
 SCF Done:  E(RAM1) =  0.182852013554     A.U. after   13 cycles
 SCF Done:  E(RAM1) =  0.182371355267     A.U. after   13 cycles
 SCF Done:  E(RAM1) =  0.181972851306     A.U. after   13 cycles
 SCF Done:  E(RAM1) =  0.181434573124     A.U. after   13 cycles
 SCF Done:  E(RAM1) =  0.181152994699     A.U. after   13 cycles
 SCF Done:  E(RAM1) =  0.179688907225     A.U. after   12 cycles
 SCF Done:  E(RAM1) =  0.179703417384     A.U. after   14 cycles
 SCF Done:  E(RAM1) =  0.179671460819     A.U. after   13 cycles
 SCF Done:  E(RAM1) =  0.179692808931     A.U. after   13 cycles
 SCF Done:  E(RAM1) =  0.179670978754     A.U. after   13 cycles
 SCF Done:  E(RAM1) =  0.179669542725     A.U. after   11 cycles
 SCF Done:  E(RAM1) =  0.179678378405     A.U. after   13 cycles
 SCF Done:  E(RAM1) =  0.179670819970     A.U. after   13 cycles
 SCF Done:  E(RAM1) =  0.179670462061     A.U. after   11 cycles
 Optimization completed.
    -- Stationary point found.
 Normal termination of Gaussian 16 at Wed May 31 13:56:03 2023.

 -------------------------------------------------------------
 #N Geom=AllCheck Guess=TCheck SCRF=Check GenChk RAM1/ZDO Freq
 -------------------------------------------------------------

 ----------------------------------------------------------------------
 Generated by autodE on: 2022-05-25. E = -382.310449 Ha. Imaginary freq
 uency = -384.9 cm-1
 ----------------------------------------------------------------------
 Charge =  0 Multiplicity = 1

                         Standard orientation:
 ---------------------------------------------------------------------
 Center     Atomic      Atomic             Coordinates (Angstroms)
 Number     Number       Type             X           Y           Z
 ---------------------------------------------------------------------
      1          6           0        2.847871    0.046543   -0.399334
      2          6           0        1.700509   -0.859263   -0.159742
      3          6           0        0.929290    0.301860    1.522550
      4          7           0       -0.183859    0.641123    1.173791
      5          6           0       -0.959069    0.466777    0.070794
      6          6           0       -1.147125    1.581155   -0.907946
      7          6           0       -2.034193   -0.466110    0.139011
      8          7           0       -2.895554   -1.253494    0.141514
      9          6           0        0.615072   -0.890142   -0.991236
     10          1           0        2.517863    1.017757   -0.844170
     11          1           0        3.392807    0.264767    0.552544
     12          1           0        3.573144   -0.429034   -1.107905
     13          1           0        1.883321   -1.691041    0.542505
     14          1           0        1.652723    0.374803    2.328135
     15          1           0       -1.582898    1.165875   -1.850337
     16          1           0       -0.172317    2.071060   -1.151902
     17          1           0       -1.844408    2.360523   -0.510398
     18          1           0       -0.103372   -1.718880   -0.958718
     19          1           0        0.524891   -0.214149   -1.851468
 ---------------------------------------------------------------------

 SCF Done:  E(RAM1) =  0.179670462061     A.U. after    2 cycles

 The electronic state is 1-A.
 Alpha  occ. eigenvalues --   -1.44611  -1.34100  -1.26715  -1.19319  -1.01524
 Alpha  occ. eigenvalues --   -0.96397  -0.82579  -0.76028  -0.66505  -0.60158
 Alpha  occ. eigenvalues --   -0.58938  -0.57485  -0.54475  -0.52818  -0.51113
 Alpha  occ. eigenvalues --   -0.49751  -0.49246  -0.48649  -0.47604  -0.45683
 Alpha  occ. eigenvalues --   -0.45273  -0.43249  -0.34507  -0.30645
 Alpha virt. eigenvalues --   -0.00876   0.03193   0.05533   0.06186   0.07819
 Alpha virt. eigenvalues --    0.09103   0.12704   0.15026   0.15955   0.16209
 Alpha virt. eigenvalues --    0.16334   0.16695   0.17054   0.17171   0.18018

 Mulliken charges:
               1
     1  C   -0.189846
     2  C   -0.205939
     3  C    0.019390
     4  N   -0.083982
     5  C   -0.102650
     6  C   -0.165455
     7  C   -0.044723
     8  N   -0.153628
     9  C   -0.207060
    10  H    0.077626
    11  H    0.084228
    12  H    0.071044
    13  H    0.124158
    14  H    0.275531
    15  H    0.102786
    16  H    0.096788
    17  H    0.080564
    18  H    0.108198
    19  H    0.112970
 Sum of Mulliken charges =  -0.00000

 Dipole moment (field-independent basis, Debye):
    X=              4.8213    Y=              2.9583    Z=              1.9838  Tot=              5.9944
 N-N= 2.465745685501D+02 E-N=-3.768851524320D+02  KE=-8.234917510027D+01
  Exact polarizability:     184.969      -0.351      82.894      36.958       6.049     100.059
 Approx polarizability:      96.734       2.144      47.203      18.170       4.595      53.159
 D2PCM: PCM CHGder 2nd derivatives, FixD1E=F FixD2E=F DoIter=F DoCFld=F I1PDM=0
 Calling FoFJK, ICntrl=    100127 FMM=F ISym2X=0 I1Cent= 0 IOpClX= 0 NMat=1 NMatS=1 NMatT=0.
 Full mass-weighted force constant matrix:
 Low frequencies --- -576.6178   -7.7605   -0.0427   -0.0209    0.1422    9.8299
 Low frequencies ---   14.0793   65.6639  102.6674
 ******    1 imaginary frequencies (negative Signs) ******
 Diagonal vibrational polarizability:

                      1                      2                      3
                      A                      A                      A
 Frequencies --   -576.6171                65.6236               102.6633
 Red. masses --      9.2888                 3.0958                 3.1321
 Frc consts  --      1.8196                 0.0079                 0.0194
 IR Inten    --    475.6502                 1.0517                 1.8183

                      4                      5                      6
                      A                      A                      A
 Frequencies --    115.3297               146.0978               156.4062
 Red. masses --      1.3238                 1.0655                 2.9975
 Frc consts  --      0.0104                 0.0134                 0.0432
 IR Inten    --      0.6656                 0.1234                 3.1802

                      7                      8                      9
                      A                      A                      A
 Frequencies --    194.3100               235.5376               271.0565
 Red. masses --      3.4787                 3.4749                 3.2147
 Frc consts  --      0.0774                 0.1136                 0.1392
 IR Inten    --      3.6716                 2.5383                13.1020

                     10                     11                     12
                      A                      A                      A
 Frequencies --    313.7090               442.7036               480.0257
 Red. masses --      4.6779                 2.0631                 2.9159
 Frc consts  --      0.2712                 0.2382                 0.3959
 IR Inten    --     33.8416                 1.9337                24.9295

                     13                     14                     15
                      A                      A                      A
 Frequencies --    520.6618               526.9955               571.6604
 Red. masses --      5.4156                 7.1651                 6.0780
 Frc consts  --      0.8650                 1.1724                 1.1703
 IR Inten    --     16.2580                60.6116                16.3833

                     16                     17                     18
                      A                      A                      A
 Frequencies --    688.4532               710.8349               756.0012
 Red. masses --      9.1112                 1.0841                 1.1399
 Frc consts  --      2.5443                 0.3228                 0.3838
 IR Inten    --     11.8743                53.8380               293.6903

                     19                     20                     21
                      A                      A                      A
 Frequencies --    864.2358               897.2570               946.2134
 Red. masses --      1.2823                 3.4223                 1.2372
 Frc consts  --      0.5643                 1.6233                 0.6526
 IR Inten    --     68.6015                34.1268                17.2298

                     22                     23                     24
                      A                      A                      A
 Frequencies --    970.1954              1015.5522              1047.1693
 Red. masses --      1.1453                 1.2938                 1.3510
 Frc consts  --      0.6352                 0.7862                 0.8728
 IR Inten    --     13.3859                16.1733                 9.4953

                     25                     26                     27
                      A                      A                      A
 Frequencies --   1063.3416              1072.0036              1079.7021
 Red. masses --      1.4984                 1.3345                 1.4769
 Frc consts  --      0.9982                 0.9036                 1.0144
 IR Inten    --      1.5541                 5.4758                 1.1518

                     28                     29                     30
                      A                      A                      A
 Frequencies --   1243.1026              1293.1272              1377.6809
 Red. masses --      1.3096                 1.6759                 1.0771
 Frc consts  --      1.1924                 1.6511                 1.2045
 IR Inten    --      0.4844                 0.1542                 2.7423

                     31                     32                     33
                      A                      A                      A
 Frequencies --   1381.6239              1383.8650              1389.7161
 Red. masses --      1.0842                 1.0734                 1.0713
 Frc consts  --      1.2194                 1.2111                 1.2191
 IR Inten    --      5.6069                 1.0428                 2.2730

                     34                     35                     36
                      A                      A                      A
 Frequencies --   1398.3857              1401.2226              1436.5762
 Red. masses --      2.8875                 1.1487                 1.5475
 Frc consts  --      3.3268                 1.3288                 1.8817
 IR Inten    --     16.2789                 0.4845                 1.8148

                     37                     38                     39
                      A                      A                      A
 Frequencies --   1448.8795              1554.3415              1708.4913
 Red. masses --      1.4965                 8.3239                 8.0950
 Frc consts  --      1.8510                11.8486                13.9218
 IR Inten    --      1.9670               105.5831                19.5869

                     40                     41                     42
                      A                      A                      A
 Frequencies --   2074.5113              2485.1034              3043.0109
 Red. masses --      6.9674                12.5233                 1.0891
 Frc consts  --     17.6665                45.5678                 5.9419
 IR Inten    --     57.4916               341.0054                 1.5796

                     43                     44                     45
                      A                      A                      A
 Frequencies --   3050.0282              3055.9246              3060.6405
 Red. masses --      1.0902                 1.0902                 1.0922
 Frc consts  --      5.9754                 5.9984                 6.0279
 IR Inten    --      4.6905                 0.8882                16.3710

                     46                     47                     48
                      A                      A                      A
 Frequencies --   3144.8397              3149.9737              3155.4976
 Red. masses --      1.0418                 1.0282                 1.0652
 Frc consts  --      6.0709                 6.0108                 6.2492
 IR Inten    --     13.0977                 8.9491                13.2203

                     49                     50                     51
                      A                      A                      A
 Frequencies --   3181.4242              3197.4231              3208.1023
 Red. masses --      1.1040                 1.1302                 1.0507
 Frc consts  --      6.5834                 6.8077                 6.3710
 IR Inten    --     19.0206               828.6915                18.0420

 - Thermochemistry -
 -------------------
 Temperature   298.150 Kelvin.  Pressure   1.00000 Atm.
 Atom     1 has atomic number  6 and mass  12.00000

 Molecular mass:   122.08440 amu.
 Principal axes and moments of inertia in atomic units:
                           1         2         3
     Eigenvalues --   677.390171684.408031736.75567
           X            0.99965  -0.01950   0.01793
           Y            0.02395   0.95454  -0.29713
           Z           -0.01132   0.29745   0.95467
 This molecule is an asymmetric top.
 Rotational symmetry number  1.
 Warning -- assumption of classical behavior for rotation
           may cause significant error
 Rotational temperatures (Kelvin)      0.12786     0.05142     0.04987
 Rotational constants (GHZ):           2.66426     1.07144     1.03915
    1 imaginary frequencies ignored.
 Zero-point vibrational energy     407192.3 (Joules/Mol)
                                   97.32129 (Kcal/Mol)
 Warning -- explicit consideration of  14 degrees of freedom as
           vibrations may cause significant error
 Vibrational temperatures:     94.42   147.71   165.93   210.20   225.03
          (Kelvin)            279.57   338.89   389.99   451.36   636.95
                              690.65   749.12   758.23   822.49   990.53
                             1022.73  1087.72  1243.44  1290.95  1361.39
                             1395.89  1461.15  1506.64  1529.91  1542.37
                             1553.45  1788.55  1860.52  1982.18  1987.85
                             1991.07  1999.49  2011.97  2016.05  2066.91
                             2084.61  2236.35  2458.14  2984.76  3575.51
                             4378.21  4388.31  4396.79  4403.58  4524.72
                             4532.11  4540.06  4577.36  4600.38  4615.74

 Zero-point correction=                           0.155091 (Hartree/Particle)
 Thermal correction to Energy=                    0.165243
 Thermal correction to Enthalpy=                  0.166187
 Thermal correction to Gibbs Free Energy=         0.119753
 Sum of electronic and zero-point Energies=              0.334762
 Sum of electronic and thermal Energies=                 0.344913
 Sum of electronic and thermal Enthalpies=               0.345857
 Sum of electronic and thermal Free Energies=            0.299424

                     E (Thermal)             CV                S
                      KCal/Mol        Cal/Mol-Kelvin    Cal/Mol-Kelvin
 Total                  103.691             35.963             97.728
 Electronic               0.000              0.000              0.000
 Translational            0.889              2.981             40.313
 Rotational               0.889              2.981             29.073
 Vibrational            101.914             30.001             28.342
 Vibration     1          0.597              1.971              4.281
 Vibration     2          0.605              1.947              3.403
 Vibration     3          0.608              1.937              3.177
 Vibration     4          0.617              1.907              2.722
 Vibration     5          0.620              1.895              2.593
 Vibration     6          0.635              1.848              2.186
 Vibration     7          0.655              1.786              1.836
 Vibration     8          0.675              1.727              1.589
 Vibration     9          0.702              1.648              1.343
 Vibration    10          0.802              1.377              0.818
 Vibration    11          0.836              1.294              0.710
 Vibration    12          0.876              1.204              0.608
 Vibration    13          0.882              1.190              0.594
 Vibration    14          0.928              1.093              0.501

 Optimization completed.
    -- Stationary point found.
 Normal termination of Gaussian 16 at Wed May 31 13:56:17 2023.
